# vtk DataFile Version 2.0
Unstructured Grid
ASCII
DATASET UNSTRUCTURED_GRID
POINTS 26 double
1 0 0
2 0 0
0 1 0
0 2 0
1 1 0
1 2 0
2 1 0
2 2 0
0 0 1
1 0 1
2 0 1
0 1 1
0 2 1
1 1 1
1 2 1
2 1 1
2 2 1
0 0 2
1 0 2
2 0 2
0 1 2
0 2 2
1 1 2
1 2 2
2 1 2
2 2 2

CELLS 47 235
4    10   24   15    9
4    13   15    9    0
4    15    0    4    6
4     2   14   13    4
4    21   11   12   23
4    20   11   23   22
4    15   24   13    9
4    14    2    5    4
4    19   18   24    9
4    22    8   13    9
4    11   21   20   23
4     2    3   14    5
4    16   15    4    6
4    11   20    8   22
4     0   15    1    6
4     8   20   17   22
4    18    8   17   22
4     2    3   12   14
4    11    2   12   14
4    11   12   23   14
4    15   10    0    1
4    18    8   22    9
4    23   11   14   13
4    16   15   13    4
4    15   10    9    0
4     2   13    0    4
4     8   11   22   13
4    13   15    0    4
4    11   23   22   13
4    11    2   14   13
4     8   13    9    0
4    24   18   22    9
4    24   22   13    9
4    19   24   10    9
4    24   25   15   13
4    24   22   25   13
4    22   23   25   13
4    25   23   14   13
4    25   16   15   13
4    16   25   14   13
4     7   16    4    6
4    11    2   13    0
4     2   11    8    0
4     8   11   13    0
4     7   16    5    4
4    14   16   13    4
4    16   14    5    4

CELL_TYPES 47
10
10
10
10
10
10
10
10
10
10
10
10
10
10
10
10
10
10
10
10
10
10
10
10
10
10
10
10
10
10
10
10
10
10
10
10
10
10
10
10
10
10
10
10
10
10
10


POINT_DATA 26
SCALARS Scalars_1 float 
LOOKUP_TABLE default 
4.5
5.6
6.7
7.6
6.7
4.5
5.5
6.7
3.4
5.6
7.6
5.6
4.5
4.6
5.7
1.2
3.4
2.3
4.5
4.6
8.9
7.8
5.8
9.3
1.2
4.5
SCALARS Scalars_2 float 
LOOKUP_TABLE default 
3.4
2.3
4.5
5.6
5.6
6.7
3.5
5.6
3.4
5.6
6.7
3.4
5.6
2.3
4.5
3.3
5.6
1.2
2.3
4.5
3.2
3.2
3.4
4.5
6.7
4.6
