# vtk DataFile Version 2.0
Unstructured Grid
ASCII
DATASET UNSTRUCTURED_GRID
POINTS 27 double
0 0 0
1 0 0
2 0 0
0 1 0
0 2 0
1 1 0
1 2 0
2 1 0
2 2 0
0 0 1
1 0 1
2 0 1
0 1 1
0 2 1
1 1 1
1 2 1
2 1 1
2 2 1
0 0 2
1 0 2
2 0 2
0 1 2
0 2 2
1 1 2
1 2 2
2 1 2
2 2 2

CELLS 48 240
4    21    9   12   23
4    25   10   14   16
4    25   23   26   14
4     9   12   23   14
4    10   16   11    1
4    26   15   17   14
4    12   13   24   15
4    13   22   12   24
4    16    2   11    1
4    21   12   24   23
4    25   10   16   11
4     3   13   12   15
4     0    3   14    5
4    22   21   12   24
4    18   19    9   23
4    21   18    9   23
4    23   25   10   14
4    24   12   15   14
4    12   24   23   14
4    17   26   14   16
4    20   19   25   10
4    26   25   14   16
4    10    0   14    1
4     9   23   10   14
4    12    3   15   14
4    13    3    4   15
4     4    3    6   15
4     0    3   12   14
4    19   23   25   10
4    25   20   10   11
4    14    0    5    1
4    19    9   23   10
4    16   14    5    1
4    10   14   16    1
4    16    7    2    1
4     7   16    5    1
4     0    9   10   14
4     9    0   12   14
4    23   24   26   14
4    26   24   15   14
4     3    6   15    5
4     3   15   14    5
4     6    8   17    5
4    17    8    7    5
4    17    7   16    5
4    14   17   16    5
4    15    6   17    5
4    15   17   14    5

CELL_TYPES 48
10
10
10
10
10
10
10
10
10
10
10
10
10
10
10
10
10
10
10
10
10
10
10
10
10
10
10
10
10
10
10
10
10
10
10
10
10
10
10
10
10
10
10
10
10
10
10
10


POINT_DATA 27
SCALARS Scalars_1 float 
LOOKUP_TABLE default 
2.3
4.5
5.6
6.7
7.6
6.7
4.5
5.5
6.7
3.4
5.6
7.6
5.6
4.5
4.6
5.7
1.2
3.4
2.3
4.5
4.6
8.9
7.8
5.8
9.3
1.2
4.5
SCALARS Scalars_2 float 
LOOKUP_TABLE default 
4.5
3.4
2.3
4.5
5.6
5.6
6.7
3.5
5.6
3.4
5.6
6.7
3.4
5.6
2.3
4.5
3.3
5.6
1.2
2.3
4.5
3.2
3.2
3.4
4.5
6.7
4.6
